
     Program BANDS v.6.7MaX starts on  2Aug2021 at  9:10:46 

     This program is part of the open-source Quantum ESPRESSO suite
     for quantum simulation of materials; please cite
         "P. Giannozzi et al., J. Phys.:Condens. Matter 21 395502 (2009);
         "P. Giannozzi et al., J. Phys.:Condens. Matter 29 465901 (2017);
          URL http://www.quantum-espresso.org", 
     in publications or presentations arising from this work. More details at
     http://www.quantum-espresso.org/quote

     Parallel version (MPI), running on     2 processors

     MPI processes distributed on     1 nodes
     R & G space division:  proc/nbgrp/npool/nimage =       2

     Reading xml data from directory:

     ../tmp/si.save/

     IMPORTANT: XC functional enforced from input :
     Exchange-correlation= PBE
                           (   1   4   3   4   0   0   0)
     Any further DFT definition will be discarded
     Please, verify this is what you really want


     Parallelization info
     --------------------
     sticks:   dense  smooth     PW     G-vecs:    dense   smooth      PW
     Min        1293     429    126                43919     8444    1365
     Max        1294     430    127                43924     8445    1368
     Sum        2587     859    253                87843    16889    2733

     Reading collected, re-writing distributed wavefunctions
     high-symmetry point:  0.5000-0.5000 0.5000   x coordinate   0.0000
     high-symmetry point:  0.0000 0.0000 0.0000   x coordinate   0.8660
     high-symmetry point:  1.0000 0.0000 0.0000   x coordinate   1.8660
     high-symmetry point:  1.0000-0.2500 0.2500   x coordinate   2.2196
     high-symmetry point:  0.0000 0.0000 0.0000   x coordinate   3.2802

     Plottable bands (eV) written to file si.bands.gnu
     Bands written to file si.bands

 **************************************************************************

                    xk=(   0.50000,  -0.50000,   0.50000  )

     zone border point and non-symmorphic group 
     symmetry decomposition not available

 **************************************************************************

 **************************************************************************

                    xk=(   0.47500,  -0.47500,   0.47500  )

     point group C_3v (3m)  
     there are  3 classes
     the character table:

       E     2C3   3s_v 
A_1    1.00  1.00  1.00
A_2    1.00  1.00 -1.00
E      2.00 -1.00  0.00

     the symmetry operations in each class and the name of the first element:

     E        1
                                                                 
     2C3      2    3
                                                                 
     3s_v     4    5    6
                                                                 

     Band symmetry, C_3v (3m)   point group:

     e(  1 -  1) =     -3.37397  eV     1   --> A_1  L_1       
     e(  2 -  2) =     -0.65641  eV     1   --> A_1  L_1       
     e(  3 -  4) =      5.03746  eV     2   --> E    L_3       
     e(  5 -  5) =      7.82854  eV     1   --> A_1  L_1       
     e(  6 -  7) =      9.58257  eV     2   --> E    L_3       
     e(  8 -  8) =     13.98731  eV     1   --> A_1  L_1       

 **************************************************************************

 **************************************************************************

                    xk=(   0.45000,  -0.45000,   0.45000  )

     Band symmetry, C_3v (3m)   point group:

     e(  1 -  1) =     -3.47342  eV     1   --> A_1  L_1       
     e(  2 -  2) =     -0.51080  eV     1   --> A_1  L_1       
     e(  3 -  4) =      5.05089  eV     2   --> E    L_3       
     e(  5 -  5) =      7.84379  eV     1   --> A_1  L_1       
     e(  6 -  7) =      9.59783  eV     2   --> E    L_3       
     e(  8 -  8) =     14.01051  eV     1   --> A_1  L_1       

 **************************************************************************

 **************************************************************************

                    xk=(   0.42500,  -0.42500,   0.42500  )

     Band symmetry, C_3v (3m)   point group:

     e(  1 -  1) =     -3.61893  eV     1   --> A_1  L_1       
     e(  2 -  2) =     -0.28849  eV     1   --> A_1  L_1       
     e(  3 -  4) =      5.07326  eV     2   --> E    L_3       
     e(  5 -  5) =      7.86912  eV     1   --> A_1  L_1       
     e(  6 -  7) =      9.62199  eV     2   --> E    L_3       
     e(  8 -  8) =     14.04665  eV     1   --> A_1  L_1       

 **************************************************************************

 **************************************************************************

                    xk=(   0.40000,  -0.40000,   0.40000  )

     Band symmetry, C_3v (3m)   point group:

     e(  1 -  1) =     -3.79225  eV     1   --> A_1  L_1       
     e(  2 -  2) =     -0.00792  eV     1   --> A_1  L_1       
     e(  3 -  4) =      5.10453  eV     2   --> E    L_3       
     e(  5 -  5) =      7.90442  eV     1   --> A_1  L_1       
     e(  6 -  7) =      9.65310  eV     2   --> E    L_3       
     e(  8 -  8) =     14.09067  eV     1   --> A_1  L_1       

 **************************************************************************

 **************************************************************************

                    xk=(   0.37500,  -0.37500,   0.37500  )

     Band symmetry, C_3v (3m)   point group:

     e(  1 -  1) =     -3.97926  eV     1   --> A_1  L_1       
     e(  2 -  2) =      0.31651  eV     1   --> A_1  L_1       
     e(  3 -  4) =      5.14464  eV     2   --> E    L_3       
     e(  5 -  5) =      7.94950  eV     1   --> A_1  L_1       
     e(  6 -  7) =      9.68818  eV     2   --> E    L_3       
     e(  8 -  8) =     14.13170  eV     1   --> A_1  L_1       

 **************************************************************************

 **************************************************************************

                    xk=(   0.35000,  -0.35000,   0.35000  )

     Band symmetry, C_3v (3m)   point group:

     e(  1 -  1) =     -4.17024  eV     1   --> A_1  L_1       
     e(  2 -  2) =      0.67471  eV     1   --> A_1  L_1       
     e(  3 -  4) =      5.19348  eV     2   --> E    L_3       
     e(  5 -  5) =      8.00408  eV     1   --> A_1  L_1       
     e(  6 -  7) =      9.72315  eV     2   --> E    L_3       
     e(  8 -  8) =     14.14563  eV     1   --> A_1  L_1       

 **************************************************************************

 **************************************************************************

                    xk=(   0.32500,  -0.32500,   0.32500  )

     Band symmetry, C_3v (3m)   point group:

     e(  1 -  1) =     -4.35880  eV     1   --> A_1  L_1       
     e(  2 -  2) =      1.05975  eV     1   --> A_1  L_1       
     e(  3 -  4) =      5.25087  eV     2   --> E    L_3       
     e(  5 -  5) =      8.06776  eV     1   --> A_1  L_1       
     e(  6 -  7) =      9.75270  eV     2   --> E    L_3       
     e(  8 -  8) =     14.08330  eV     1   --> A_1  L_1       

 **************************************************************************

 **************************************************************************

                    xk=(   0.30000,  -0.30000,   0.30000  )

     Band symmetry, C_3v (3m)   point group:

     e(  1 -  1) =     -4.54068  eV     1   --> A_1  L_1       
     e(  2 -  2) =      1.46675  eV     1   --> A_1  L_1       
     e(  3 -  4) =      5.31654  eV     2   --> E    L_3       
     e(  5 -  5) =      8.14000  eV     1   --> A_1  L_1       
     e(  6 -  7) =      9.77035  eV     2   --> E    L_3       
     e(  8 -  8) =     13.83249  eV     1   -->   ?

 **************************************************************************

 **************************************************************************

                    xk=(   0.27500,  -0.27500,   0.27500  )

     Band symmetry, C_3v (3m)   point group:

     e(  1 -  1) =     -4.71306  eV     1   --> A_1  L_1       
     e(  2 -  2) =      1.89202  eV     1   --> A_1  L_1       
     e(  3 -  4) =      5.39009  eV     2   --> E    L_3       
     e(  5 -  5) =      8.22002  eV     1   --> A_1  L_1       
     e(  6 -  7) =      9.76903  eV     2   --> E    L_3       
     e(  8 -  8) =     13.57089  eV     1   --> A_1  L_1       

 **************************************************************************

 **************************************************************************

                    xk=(   0.25000,  -0.25000,   0.25000  )

     Band symmetry, C_3v (3m)   point group:

     e(  1 -  1) =     -4.87397  eV     1   --> A_1  L_1       
     e(  2 -  2) =      2.33247  eV     1   --> A_1  L_1       
     e(  3 -  4) =      5.47093  eV     2   --> E    L_3       
     e(  5 -  5) =      8.30676  eV     1   --> A_1  L_1       
     e(  6 -  7) =      9.74223  eV     2   --> E    L_3       
     e(  8 -  8) =     13.18318  eV     1   --> A_1  L_1       

 **************************************************************************

 **************************************************************************

                    xk=(   0.22500,  -0.22500,   0.22500  )

     Band symmetry, C_3v (3m)   point group:

     e(  1 -  1) =     -5.02202  eV     1   --> A_1  L_1       
     e(  2 -  2) =      2.78526  eV     1   --> A_1  L_1       
     e(  3 -  4) =      5.55820  eV     2   --> E    L_3       
     e(  5 -  5) =      8.39876  eV     1   --> A_1  L_1       
     e(  6 -  7) =      9.68586  eV     2   --> E    L_3       
     e(  8 -  8) =     12.76216  eV     1   --> A_1  L_1       

 **************************************************************************

 **************************************************************************

                    xk=(   0.20000,  -0.20000,   0.20000  )

     Band symmetry, C_3v (3m)   point group:

     e(  1 -  1) =     -5.15624  eV     1   --> A_1  L_1       
     e(  2 -  2) =      3.24742  eV     1   --> A_1  L_1       
     e(  3 -  4) =      5.65072  eV     2   --> E    L_3       
     e(  5 -  5) =      8.49402  eV     1   --> A_1  L_1       
     e(  6 -  7) =      9.59979  eV     2   --> E    L_3       
     e(  8 -  8) =     12.32505  eV     1   --> A_1  L_1       

 **************************************************************************

 **************************************************************************

                    xk=(   0.17500,  -0.17500,   0.17500  )

     Band symmetry, C_3v (3m)   point group:

     e(  1 -  1) =     -5.27588  eV     1   --> A_1  L_1       
     e(  2 -  2) =      3.71546  eV     1   --> A_1  L_1       
     e(  3 -  4) =      5.74684  eV     2   --> E    L_3       
     e(  5 -  5) =      8.58976  eV     1   --> A_1  L_1       
     e(  6 -  7) =      9.48847  eV     2   --> E    L_3       
     e(  8 -  8) =     11.88079  eV     1   --> A_1  L_1       

 **************************************************************************

 **************************************************************************

                    xk=(   0.15000,  -0.15000,   0.15000  )

     Band symmetry, C_3v (3m)   point group:

     e(  1 -  1) =     -5.38042  eV     1   --> A_1  L_1       
     e(  2 -  2) =      4.18487  eV     1   --> A_1  L_1       
     e(  3 -  4) =      5.84432  eV     2   --> E    L_3       
     e(  5 -  5) =      8.68212  eV     1   --> A_1  L_1       
     e(  6 -  7) =      9.35998  eV     2   --> E    L_3       
     e(  8 -  8) =     11.43628  eV     1   --> A_1  L_1       

 **************************************************************************

 **************************************************************************

                    xk=(   0.12500,  -0.12500,   0.12500  )

     Band symmetry, C_3v (3m)   point group:

     e(  1 -  1) =     -5.46943  eV     1   --> A_1  L_1       
     e(  2 -  2) =      4.64924  eV     1   --> A_1  L_1       
     e(  3 -  4) =      5.94010  eV     2   --> E    L_3       
     e(  5 -  5) =      8.76556  eV     1   --> A_1  L_1       
     e(  6 -  7) =      9.22441  eV     2   --> E    L_3       
     e(  8 -  8) =     10.99997  eV     1   --> A_1  L_1       

 **************************************************************************

 **************************************************************************

                    xk=(   0.10000,  -0.10000,   0.10000  )

     Band symmetry, C_3v (3m)   point group:

     e(  1 -  1) =     -5.54261  eV     1   --> A_1  L_1       
     e(  2 -  2) =      5.09871  eV     1   --> A_1  L_1       
     e(  3 -  4) =      6.03020  eV     2   --> E    L_3       
     e(  5 -  5) =      8.83197  eV     1   --> A_1  L_1       
     e(  6 -  7) =      9.09254  eV     2   --> E    L_3       
     e(  8 -  8) =     10.58534  eV     1   --> A_1  L_1       

 **************************************************************************

 **************************************************************************

                    xk=(   0.07500,  -0.07500,   0.07500  )

     Band symmetry, C_3v (3m)   point group:

     e(  1 -  1) =     -5.59975  eV     1   --> A_1  L_1       
     e(  2 -  2) =      5.51711  eV     1   --> A_1  L_1       
     e(  3 -  4) =      6.10962  eV     2   --> E    L_3       
     e(  5 -  5) =      8.86963  eV     1   --> A_1  L_1       
     e(  6 -  7) =      8.97504  eV     2   --> E    L_3       
     e(  8 -  8) =     10.21539  eV     1   --> A_1  L_1       

 **************************************************************************

 **************************************************************************

                    xk=(   0.05000,  -0.05000,   0.05000  )

     Band symmetry, C_3v (3m)   point group:

     e(  1 -  1) =     -5.64067  eV     1   --> A_1  L_1       
     e(  2 -  2) =      5.87676  eV     1   --> A_1  L_1       
     e(  3 -  4) =      6.17262  eV     2   --> E    L_3       
     e(  5 -  5) =      8.86582  eV     1   --> A_1  L_1       
     e(  6 -  7) =      8.88195  eV     2   --> E    L_3       
     e(  8 -  8) =      9.92562  eV     1   --> A_1  L_1       

 **************************************************************************

 **************************************************************************

                    xk=(   0.02500,  -0.02500,   0.02500  )

     Band symmetry, C_3v (3m)   point group:

     e(  1 -  1) =     -5.66526  eV     1   --> A_1  L_1       
     e(  2 -  2) =      6.13248  eV     1   --> A_1  L_1       
     e(  3 -  4) =      6.21343  eV     2   --> E    L_3       
     e(  5 -  6) =      8.82197  eV     2   --> E    L_3       
     e(  7 -  7) =      8.82669  eV     1   --> A_1  L_1       
     e(  8 -  8) =      9.75069  eV     1   --> A_1  L_1       

 **************************************************************************

 **************************************************************************

                    xk=(   0.00000,   0.00000,   0.00000  )

     point group O_h (m-3m) 
     there are 10 classes
     the character table:

       E     8C3   3C2   6C4   6C2'  i     8S6   3s_h  6S4   6s_d 
A_1g   1.00  1.00  1.00  1.00  1.00  1.00  1.00  1.00  1.00  1.00
A_2g   1.00  1.00  1.00 -1.00 -1.00  1.00  1.00  1.00 -1.00 -1.00
E_g    2.00 -1.00  2.00  0.00  0.00  2.00 -1.00  2.00  0.00  0.00
T_1g   3.00  0.00 -1.00  1.00 -1.00  3.00  0.00 -1.00  1.00 -1.00
T_2g   3.00  0.00 -1.00 -1.00  1.00  3.00  0.00 -1.00 -1.00  1.00
A_1u   1.00  1.00  1.00  1.00  1.00 -1.00 -1.00 -1.00 -1.00 -1.00
A_2u   1.00  1.00  1.00 -1.00 -1.00 -1.00 -1.00 -1.00  1.00  1.00
E_u    2.00 -1.00  2.00  0.00  0.00 -2.00  1.00 -2.00  0.00  0.00
T_1u   3.00  0.00 -1.00  1.00 -1.00 -3.00  0.00  1.00 -1.00  1.00
T_2u   3.00  0.00 -1.00 -1.00  1.00 -3.00  0.00  1.00  1.00 -1.00

     the symmetry operations in each class and the name of the first element:

     E        1
                                                                 
     8C3     17   19   20   18   24   21   22   23
                                                                 
     3C2      2    4    3
                                                                 
     6C4      7    8   15   16   12   11
                                                                 
     6C2'     5    6   14   13   10    9
                                                                 
     i       25
                                                                 
     8S6     41   43   44   42   48   45   46   47
                                                                 
     3s_h    26   28   27
                                                                 
     6S4     31   32   39   40   36   35
                                                                 
     6s_d    29   30   38   37   34   33
                                                                 

     Band symmetry, O_h (m-3m)  point group:

     e(  1 -  1) =     -5.67347  eV     1   --> A_1g G_1   G_1+
     e(  2 -  4) =      6.22760  eV     3   --> T_2g G_25' G_5+
     e(  5 -  7) =      8.80123  eV     3   --> T_1u G_15  G_4-
     e(  8 -  8) =      9.69530  eV     1   --> A_2u G_2'  G_2-

 **************************************************************************

 **************************************************************************

                    xk=(   0.03333,   0.00000,   0.00000  )

     point group C_4v (4mm) 
     there are  5 classes
     the character table:

       E     2C4   C2    2s_v  2s_d 
A_1    1.00  1.00  1.00  1.00  1.00
A_2    1.00  1.00  1.00 -1.00 -1.00
B_1    1.00 -1.00  1.00  1.00 -1.00
B_2    1.00 -1.00  1.00 -1.00  1.00
E      2.00  0.00 -2.00  0.00  0.00

     the symmetry operations in each class and the name of the first element:

     E        1
                                                                 
     2C4      3    4
                                                                 
     C2       2
                                                                 
     2s_v     5    6
                                                                 
     2s_d     7    8
                                                                 

     Band symmetry, C_4v (4mm)  point group:

     e(  1 -  1) =     -5.66860  eV     1   --> A_1  G_1 D_1   
     e(  2 -  2) =      6.19525  eV     1   --> B_2  G_4 D_2'  
     e(  3 -  4) =      6.20659  eV     2   --> E    G_5 D_5   
     e(  5 -  5) =      8.78926  eV     1   --> A_1  G_1 D_1   
     e(  6 -  7) =      8.82823  eV     2   --> E    G_5 D_5   
     e(  8 -  8) =      9.72697  eV     1   --> B_2  G_4 D_2'  

 **************************************************************************

 **************************************************************************

                    xk=(   0.06667,   0.00000,   0.00000  )

     Band symmetry, C_4v (4mm)  point group:

     e(  1 -  1) =     -5.65402  eV     1   --> A_1  G_1 D_1   
     e(  2 -  2) =      6.10178  eV     1   --> B_2  G_4 D_2'  
     e(  3 -  4) =      6.14615  eV     2   --> E    G_5 D_5   
     e(  5 -  5) =      8.75401  eV     1   --> A_1  G_1 D_1   
     e(  6 -  7) =      8.90662  eV     2   --> E    G_5 D_5   
     e(  8 -  8) =      9.81780  eV     1   --> B_2  G_4 D_2'  

 **************************************************************************

 **************************************************************************

                    xk=(   0.10000,   0.00000,   0.00000  )

     Band symmetry, C_4v (4mm)  point group:

     e(  1 -  1) =     -5.62972  eV     1   --> A_1  G_1 D_1   
     e(  2 -  2) =      5.95618  eV     1   --> B_2  G_4 D_2'  
     e(  3 -  4) =      6.05289  eV     2   --> E    G_5 D_5   
     e(  5 -  5) =      8.69728  eV     1   --> A_1  G_1 D_1   
     e(  6 -  7) =      9.02977  eV     2   --> E    G_5 D_5   
     e(  8 -  8) =      9.95671  eV     1   --> B_2  G_4 D_2'  

 **************************************************************************

 **************************************************************************

                    xk=(   0.13333,   0.00000,   0.00000  )

     Band symmetry, C_4v (4mm)  point group:

     e(  1 -  1) =     -5.59572  eV     1   --> A_1  G_1 D_1   
     e(  2 -  2) =      5.76945  eV     1   --> B_2  G_4 D_2'  
     e(  3 -  4) =      5.93491  eV     2   --> E    G_5 D_5   
     e(  5 -  5) =      8.62176  eV     1   --> A_1  G_1 D_1   
     e(  6 -  7) =      9.18950  eV     2   --> E    G_5 D_5   
     e(  8 -  8) =     10.12861  eV     1   --> B_2  G_4 D_2'  

 **************************************************************************

 **************************************************************************

                    xk=(   0.16667,   0.00000,   0.00000  )

     Band symmetry, C_4v (4mm)  point group:

     e(  1 -  1) =     -5.55204  eV     1   --> A_1  G_1 D_1   
     e(  2 -  2) =      5.55181  eV     1   --> B_2  G_4 D_2'  
     e(  3 -  4) =      5.79980  eV     2   --> E    G_5 D_5   
     e(  5 -  5) =      8.53064  eV     1   --> A_1  G_1 D_1   
     e(  6 -  7) =      9.37813  eV     2   --> E    G_5 D_5   
     e(  8 -  8) =     10.31574  eV     1   --> B_2  G_4 D_2'  

 **************************************************************************

 **************************************************************************

                    xk=(   0.20000,   0.00000,   0.00000  )

     Band symmetry, C_4v (4mm)  point group:

     e(  1 -  1) =     -5.49871  eV     1   --> A_1  G_1 D_1   
     e(  2 -  2) =      5.31152  eV     1   --> B_2  G_4 D_2'  
     e(  3 -  4) =      5.65381  eV     2   --> E    G_5 D_5   
     e(  5 -  5) =      8.42729  eV     1   --> A_1  G_1 D_1   
     e(  6 -  7) =      9.58931  eV     2   --> E    G_5 D_5   
     e(  8 -  8) =     10.49648  eV     1   --> B_2  G_4 D_2'  

 **************************************************************************

 **************************************************************************

                    xk=(   0.23333,   0.00000,   0.00000  )

     Band symmetry, C_4v (4mm)  point group:

     e(  1 -  1) =     -5.43576  eV     1   --> A_1  G_1 D_1   
     e(  2 -  2) =      5.05478  eV     1   --> B_2  G_4 D_2'  
     e(  3 -  4) =      5.50167  eV     2   --> E    G_5 D_5   
     e(  5 -  5) =      8.31495  eV     1   --> A_1  G_1 D_1   
     e(  6 -  7) =      9.81818  eV     2   --> E    G_5 D_5   
     e(  8 -  8) =     10.64206  eV     1   --> B_2  G_4 D_2'  

 **************************************************************************

 **************************************************************************

                    xk=(   0.26667,   0.00000,   0.00000  )

     Band symmetry, C_4v (4mm)  point group:

     e(  1 -  1) =     -5.36323  eV     1   --> A_1  G_1 D_1   
     e(  2 -  2) =      4.78610  eV     1   --> B_2  G_4 D_2'  
     e(  3 -  4) =      5.34693  eV     2   --> E    G_5 D_5   
     e(  5 -  5) =      8.19662  eV     1   --> A_1  G_1 D_1   
     e(  6 -  7) =     10.06107  eV     2   --> E    G_5 D_5   
     e(  8 -  8) =     10.71652  eV     1   --> B_2  G_4 D_2'  

 **************************************************************************

 **************************************************************************

                    xk=(   0.30000,   0.00000,   0.00000  )

     Band symmetry, C_4v (4mm)  point group:

     e(  1 -  1) =     -5.28117  eV     1   --> A_1  G_1 D_1   
     e(  2 -  2) =      4.50870  eV     1   --> B_2  G_4 D_2'  
     e(  3 -  4) =      5.19217  eV     2   --> E    G_5 D_5   
     e(  5 -  5) =      8.07494  eV     1   --> A_1  G_1 D_1   
     e(  6 -  7) =     10.31524  eV     2   --> E    G_5 D_5   
     e(  8 -  8) =     10.69145  eV     1   --> B_2  G_4 D_2'  

 **************************************************************************

 **************************************************************************

                    xk=(   0.33333,   0.00000,   0.00000  )

     Band symmetry, C_4v (4mm)  point group:

     e(  1 -  1) =     -5.18963  eV     1   --> A_1  G_1 D_1   
     e(  2 -  2) =      4.22489  eV     1   --> B_2  G_4 D_2'  
     e(  3 -  4) =      5.03931  eV     2   --> E    G_5 D_5   
     e(  5 -  5) =      7.95222  eV     1   --> A_1  G_1 D_1   
     e(  6 -  6) =     10.56907  eV     1   --> B_2  G_4 D_2'  
     e(  7 -  8) =     10.57862  eV     2   --> E    G_5 D_5   

 **************************************************************************

 **************************************************************************

                    xk=(   0.36667,   0.00000,   0.00000  )

     Band symmetry, C_4v (4mm)  point group:

     e(  1 -  1) =     -5.08868  eV     1   --> A_1  G_1 D_1   
     e(  2 -  2) =      3.93635  eV     1   --> B_2  G_4 D_2'  
     e(  3 -  4) =      4.88982  eV     2   --> E    G_5 D_5   
     e(  5 -  5) =      7.83041  eV     1   --> A_1  G_1 D_1   
     e(  6 -  6) =     10.37757  eV     1   --> B_2  G_4 D_2'  
     e(  7 -  8) =     10.84965  eV     2   --> E    G_5 D_5   

 **************************************************************************

 **************************************************************************

                    xk=(   0.40000,   0.00000,   0.00000  )

     Band symmetry, C_4v (4mm)  point group:

     e(  1 -  1) =     -4.97837  eV     1   --> A_1  G_1 D_1   
     e(  2 -  2) =      3.64434  eV     1   --> B_2  G_4 D_2'  
     e(  3 -  4) =      4.74476  eV     2   --> E    G_5 D_5   
     e(  5 -  5) =      7.71118  eV     1   --> A_1  G_1 D_1   
     e(  6 -  6) =     10.14665  eV     1   --> B_2  G_4 D_2'  
     e(  7 -  8) =     11.12708  eV     2   --> E    G_5 D_5   

 **************************************************************************

 **************************************************************************

                    xk=(   0.43333,   0.00000,   0.00000  )

     Band symmetry, C_4v (4mm)  point group:

     e(  1 -  1) =     -4.85879  eV     1   --> A_1  G_1 D_1   
     e(  2 -  2) =      3.34979  eV     1   --> B_2  G_4 D_2'  
     e(  3 -  4) =      4.60501  eV     2   --> E    G_5 D_5   
     e(  5 -  5) =      7.59591  eV     1   --> A_1  G_1 D_1   
     e(  6 -  6) =      9.89686  eV     1   --> B_2  G_4 D_2'  
     e(  7 -  8) =     11.40997  eV     2   --> E    G_5 D_5   

 **************************************************************************

 **************************************************************************

                    xk=(   0.46667,   0.00000,   0.00000  )

     Band symmetry, C_4v (4mm)  point group:

     e(  1 -  1) =     -4.73002  eV     1   --> A_1  G_1 D_1   
     e(  2 -  2) =      3.05345  eV     1   --> B_2  G_4 D_2'  
     e(  3 -  4) =      4.47121  eV     2   --> E    G_5 D_5   
     e(  5 -  5) =      7.48581  eV     1   --> A_1  G_1 D_1   
     e(  6 -  6) =      9.64066  eV     1   --> B_2  G_4 D_2'  
     e(  7 -  8) =     11.69756  eV     2   --> E    G_5 D_5   

 **************************************************************************

 **************************************************************************

                    xk=(   0.50000,   0.00000,   0.00000  )

     Band symmetry, C_4v (4mm)  point group:

     e(  1 -  1) =     -4.59216  eV     1   --> A_1  G_1 D_1   
     e(  2 -  2) =      2.75592  eV     1   --> B_2  G_4 D_2'  
     e(  3 -  4) =      4.34390  eV     2   --> E    G_5 D_5   
     e(  5 -  5) =      7.38187  eV     1   --> A_1  G_1 D_1   
     e(  6 -  6) =      9.38559  eV     1   --> B_2  G_4 D_2'  
     e(  7 -  8) =     11.98925  eV     2   --> E    G_5 D_5   

 **************************************************************************

 **************************************************************************

                    xk=(   0.53333,   0.00000,   0.00000  )

     Band symmetry, C_4v (4mm)  point group:

     e(  1 -  1) =     -4.44531  eV     1   --> A_1  G_1 D_1   
     e(  2 -  2) =      2.45775  eV     1   --> B_2  G_4 D_2'  
     e(  3 -  4) =      4.22350  eV     2   --> E    G_5 D_5   
     e(  5 -  5) =      7.28496  eV     1   --> A_1  G_1 D_1   
     e(  6 -  6) =      9.13630  eV     1   --> B_2  G_4 D_2'  
     e(  7 -  8) =     12.28459  eV     2   --> E    G_5 D_5   

 **************************************************************************

 **************************************************************************

                    xk=(   0.56667,   0.00000,   0.00000  )

     Band symmetry, C_4v (4mm)  point group:

     e(  1 -  1) =     -4.28958  eV     1   --> A_1  G_1 D_1   
     e(  2 -  2) =      2.15941  eV     1   --> B_2  G_4 D_2'  
     e(  3 -  4) =      4.11036  eV     2   --> E    G_5 D_5   
     e(  5 -  5) =      7.19582  eV     1   --> A_1  G_1 D_1   
     e(  6 -  6) =      8.89580  eV     1   --> B_2  G_4 D_2'  
     e(  7 -  8) =     12.58319  eV     2   --> E    G_5 D_5   

 **************************************************************************

 **************************************************************************

                    xk=(   0.60000,   0.00000,   0.00000  )

     Band symmetry, C_4v (4mm)  point group:

     e(  1 -  1) =     -4.12510  eV     1   --> A_1  G_1 D_1   
     e(  2 -  2) =      1.86136  eV     1   --> B_2  G_4 D_2'  
     e(  3 -  4) =      4.00477  eV     2   --> E    G_5 D_5   
     e(  5 -  5) =      7.11509  eV     1   --> A_1  G_1 D_1   
     e(  6 -  6) =      8.66607  eV     1   --> B_2  G_4 D_2'  
     e(  7 -  8) =     12.88479  eV     2   --> E    G_5 D_5   

 **************************************************************************

 **************************************************************************

                    xk=(   0.63333,   0.00000,   0.00000  )

     Band symmetry, C_4v (4mm)  point group:

     e(  1 -  1) =     -3.95201  eV     1   --> A_1  G_1 D_1   
     e(  2 -  2) =      1.56404  eV     1   --> B_2  G_4 D_2'  
     e(  3 -  4) =      3.90695  eV     2   --> E    G_5 D_5   
     e(  5 -  5) =      7.04334  eV     1   --> A_1  G_1 D_1   
     e(  6 -  6) =      8.44843  eV     1   --> B_2  G_4 D_2'  
     e(  7 -  8) =     13.18915  eV     2   --> E    G_5 D_5   

 **************************************************************************

 **************************************************************************

                    xk=(   0.66667,   0.00000,   0.00000  )

     Band symmetry, C_4v (4mm)  point group:

     e(  1 -  1) =     -3.77045  eV     1   --> A_1  G_1 D_1   
     e(  2 -  2) =      1.26789  eV     1   --> B_2  G_4 D_2'  
     e(  3 -  4) =      3.81711  eV     2   --> E    G_5 D_5   
     e(  5 -  5) =      6.98108  eV     1   --> A_1  G_1 D_1   
     e(  6 -  6) =      8.24377  eV     1   --> B_2  G_4 D_2'  
     e(  7 -  8) =     13.49610  eV     2   --> E    G_5 D_5   

 **************************************************************************

 **************************************************************************

                    xk=(   0.70000,   0.00000,   0.00000  )

     Band symmetry, C_4v (4mm)  point group:

     e(  1 -  1) =     -3.58059  eV     1   --> A_1  G_1 D_1   
     e(  2 -  2) =      0.97335  eV     1   --> B_2  G_4 D_2'  
     e(  3 -  4) =      3.73542  eV     2   --> E    G_5 D_5   
     e(  5 -  5) =      6.92875  eV     1   --> A_1  G_1 D_1   
     e(  6 -  6) =      8.05269  eV     1   --> B_2  G_4 D_2'  
     e(  7 -  8) =     13.80545  eV     2   --> E    G_5 D_5   

 **************************************************************************

 **************************************************************************

                    xk=(   0.73333,   0.00000,   0.00000  )

     Band symmetry, C_4v (4mm)  point group:

     e(  1 -  1) =     -3.38260  eV     1   --> A_1  G_1 D_1   
     e(  2 -  2) =      0.68087  eV     1   --> B_2  G_4 D_2'  
     e(  3 -  4) =      3.66200  eV     2   --> E    G_5 D_5   
     e(  5 -  5) =      6.88676  eV     1   --> A_1  G_1 D_1   
     e(  6 -  6) =      7.87554  eV     1   --> B_2  G_4 D_2'  
     e(  7 -  8) =     14.11703  eV     2   --> E    G_5 D_5   

 **************************************************************************

 **************************************************************************

                    xk=(   0.76667,   0.00000,   0.00000  )

     Band symmetry, C_4v (4mm)  point group:

     e(  1 -  1) =     -3.17667  eV     1   --> A_1  G_1 D_1   
     e(  2 -  2) =      0.39089  eV     1   --> B_2  G_4 D_2'  
     e(  3 -  4) =      3.59699  eV     2   --> E    G_5 D_5   
     e(  5 -  5) =      6.85549  eV     1   --> A_1  G_1 D_1   
     e(  6 -  6) =      7.71251  eV     1   --> B_2  G_4 D_2'  
     e(  7 -  8) =     14.43054  eV     2   --> E    G_5 D_5   

 **************************************************************************

 **************************************************************************

                    xk=(   0.80000,   0.00000,   0.00000  )

     Band symmetry, C_4v (4mm)  point group:

     e(  1 -  1) =     -2.96301  eV     1   --> A_1  G_1 D_1   
     e(  2 -  2) =      0.10386  eV     1   --> B_2  G_4 D_2'  
     e(  3 -  4) =      3.54046  eV     2   --> E    G_5 D_5   
     e(  5 -  5) =      6.83530  eV     1   --> A_1  G_1 D_1   
     e(  6 -  6) =      7.56369  eV     1   --> B_2  G_4 D_2'  
     e(  7 -  8) =     14.74553  eV     2   --> E    G_5 D_5   

 **************************************************************************

 **************************************************************************

                    xk=(   0.83333,   0.00000,   0.00000  )

     Band symmetry, C_4v (4mm)  point group:

     e(  1 -  1) =     -2.74185  eV     1   --> A_1  G_1 D_1   
     e(  2 -  2) =     -0.17979  eV     1   --> B_2  G_4 D_2'  
     e(  3 -  4) =      3.49251  eV     2   --> E    G_5 D_5   
     e(  5 -  5) =      6.82652  eV     1   --> A_1  G_1 D_1   
     e(  6 -  6) =      7.42906  eV     1   --> B_2  G_4 D_2'  
     e(  7 -  8) =     15.06115  eV     2   --> E    G_5 D_5   

 **************************************************************************

 **************************************************************************

                    xk=(   0.86667,   0.00000,   0.00000  )

     Band symmetry, C_4v (4mm)  point group:

     e(  1 -  1) =     -2.51342  eV     1   --> A_1  G_1 D_1   
     e(  2 -  2) =     -0.45962  eV     1   --> B_2  G_4 D_2'  
     e(  3 -  4) =      3.45319  eV     2   --> E    G_5 D_5   
     e(  5 -  5) =      6.82945  eV     1   --> A_1  G_1 D_1   
     e(  6 -  6) =      7.30854  eV     1   --> B_2  G_4 D_2'  
     e(  7 -  8) =     15.37574  eV     2   --> E    G_5 D_5   

 **************************************************************************

 **************************************************************************

                    xk=(   0.90000,   0.00000,   0.00000  )

     Band symmetry, C_4v (4mm)  point group:

     e(  1 -  1) =     -2.27798  eV     1   --> A_1  G_1 D_1   
     e(  2 -  2) =     -0.73520  eV     1   --> B_2  G_4 D_2'  
     e(  3 -  4) =      3.42256  eV     2   --> E    G_5 D_5   
     e(  5 -  5) =      6.84440  eV     1   --> A_1  G_1 D_1   
     e(  6 -  6) =      7.20198  eV     1   --> B_2  G_4 D_2'  
     e(  7 -  8) =     15.68564  eV     2   --> E    G_5 D_5   

 **************************************************************************

 **************************************************************************

                    xk=(   0.93333,   0.00000,   0.00000  )

     Band symmetry, C_4v (4mm)  point group:

     e(  1 -  1) =     -2.03582  eV     1   --> A_1  G_1 D_1   
     e(  2 -  2) =     -1.00614  eV     1   --> B_2  G_4 D_2'  
     e(  3 -  4) =      3.40065  eV     2   --> E    G_5 D_5   
     e(  5 -  5) =      6.87167  eV     1   --> A_1  G_1 D_1   
     e(  6 -  6) =      7.10922  eV     1   --> B_2  G_4 D_2'  
     e(  7 -  8) =     15.98152  eV     2   --> E    G_5 D_5   

 **************************************************************************

 **************************************************************************

                    xk=(   0.96667,   0.00000,   0.00000  )

     Band symmetry, C_4v (4mm)  point group:

     e(  1 -  1) =     -1.78722  eV     1   --> A_1  G_1 D_1   
     e(  2 -  2) =     -1.27204  eV     1   --> B_2  G_4 D_2'  
     e(  3 -  4) =      3.38750  eV     2   --> E    G_5 D_5   
     e(  5 -  5) =      6.91152  eV     1   --> A_1  G_1 D_1   
     e(  6 -  6) =      7.03004  eV     1   --> B_2  G_4 D_2'  
     e(  7 -  8) =     16.23433  eV     2   --> E    G_5 D_5   

 **************************************************************************

 **************************************************************************

                    xk=(   1.00000,   0.00000,   0.00000  )

     zone border point and non-symmorphic group 
     symmetry decomposition not available

 **************************************************************************

 **************************************************************************

                    xk=(   1.00000,  -0.02500,   0.02500  )

     zone border point and non-symmorphic group 
     symmetry decomposition not available

 **************************************************************************

 **************************************************************************

                    xk=(   1.00000,  -0.05000,   0.05000  )

     zone border point and non-symmorphic group 
     symmetry decomposition not available

 **************************************************************************

 **************************************************************************

                    xk=(   1.00000,  -0.07500,   0.07500  )

     zone border point and non-symmorphic group 
     symmetry decomposition not available

 **************************************************************************

 **************************************************************************

                    xk=(   1.00000,  -0.10000,   0.10000  )

     zone border point and non-symmorphic group 
     symmetry decomposition not available

 **************************************************************************

 **************************************************************************

                    xk=(   1.00000,  -0.12500,   0.12500  )

     zone border point and non-symmorphic group 
     symmetry decomposition not available

 **************************************************************************

 **************************************************************************

                    xk=(   1.00000,  -0.15000,   0.15000  )

     zone border point and non-symmorphic group 
     symmetry decomposition not available

 **************************************************************************

 **************************************************************************

                    xk=(   1.00000,  -0.17500,   0.17500  )

     zone border point and non-symmorphic group 
     symmetry decomposition not available

 **************************************************************************

 **************************************************************************

                    xk=(   1.00000,  -0.20000,   0.20000  )

     zone border point and non-symmorphic group 
     symmetry decomposition not available

 **************************************************************************

 **************************************************************************

                    xk=(   1.00000,  -0.22500,   0.22500  )

     zone border point and non-symmorphic group 
     symmetry decomposition not available

 **************************************************************************

 **************************************************************************

                    xk=(   1.00000,  -0.25000,   0.25000  )

     zone border point and non-symmorphic group 
     symmetry decomposition not available

 **************************************************************************

 **************************************************************************

                    xk=(   0.96667,  -0.24167,   0.24167  )

     point group C_s (m)    
     there are  2 classes
     the character table:

       E     s    
A'     1.00  1.00
A''    1.00 -1.00

     the symmetry operations in each class and the name of the first element:

     E        1
                                                                 
     s        2
                                                                 

     Band symmetry, C_s (m)     point group:

     e(  1 -  1) =     -1.94564  eV     1   --> A'             
     e(  2 -  2) =     -0.94639  eV     1   --> A'             
     e(  3 -  3) =      1.98184  eV     1   --> A'             
     e(  4 -  4) =      3.78638  eV     1   --> A''            
     e(  5 -  5) =      7.43243  eV     1   --> A'             
     e(  6 -  6) =     10.21002  eV     1   --> A'             
     e(  7 -  7) =     13.73221  eV     1   --> A''            
     e(  8 -  8) =     14.12671  eV     1   --> A'             

 **************************************************************************

 **************************************************************************

                    xk=(   0.93333,  -0.23333,   0.23333  )

     Band symmetry, C_s (m)     point group:

     e(  1 -  1) =     -2.03172  eV     1   --> A'             
     e(  2 -  2) =     -0.86996  eV     1   --> A'             
     e(  3 -  3) =      2.05527  eV     1   --> A'             
     e(  4 -  4) =      3.77212  eV     1   --> A''            
     e(  5 -  5) =      7.41907  eV     1   --> A'             
     e(  6 -  6) =     10.06275  eV     1   --> A'             
     e(  7 -  7) =     13.64607  eV     1   --> A''            
     e(  8 -  8) =     13.91071  eV     1   --> A'             

 **************************************************************************

 **************************************************************************

                    xk=(   0.90000,  -0.22500,   0.22500  )

     Band symmetry, C_s (m)     point group:

     e(  1 -  1) =     -2.17778  eV     1   --> A'             
     e(  2 -  2) =     -0.73354  eV     1   --> A'             
     e(  3 -  3) =      2.15283  eV     1   --> A'             
     e(  4 -  4) =      3.76693  eV     1   --> A''            
     e(  5 -  5) =      7.41789  eV     1   --> A'             
     e(  6 -  6) =      9.92966  eV     1   --> A'             
     e(  7 -  7) =     13.51328  eV     1   --> A''            
     e(  8 -  8) =     13.68864  eV     1   --> A'             

 **************************************************************************

 **************************************************************************

                    xk=(   0.86667,  -0.21667,   0.21667  )

     Band symmetry, C_s (m)     point group:

     e(  1 -  1) =     -2.35795  eV     1   --> A'             
     e(  2 -  2) =     -0.55954  eV     1   --> A'             
     e(  3 -  3) =      2.27072  eV     1   --> A'             
     e(  4 -  4) =      3.77093  eV     1   --> A''            
     e(  5 -  5) =      7.42849  eV     1   --> A'             
     e(  6 -  6) =      9.81169  eV     1   --> A'             
     e(  7 -  7) =     13.36362  eV     1   --> A''            
     e(  8 -  8) =     13.46600  eV     1   --> A'             

 **************************************************************************

 **************************************************************************

                    xk=(   0.83333,  -0.20833,   0.20833  )

     Band symmetry, C_s (m)     point group:

     e(  1 -  1) =     -2.55562  eV     1   --> A'             
     e(  2 -  2) =     -0.36179  eV     1   --> A'             
     e(  3 -  3) =      2.40574  eV     1   --> A'             
     e(  4 -  4) =      3.78420  eV     1   --> A''            
     e(  5 -  5) =      7.45023  eV     1   --> A'             
     e(  6 -  6) =      9.70996  eV     1   --> A'             
     e(  7 -  7) =     13.20845  eV     1   --> A''            
     e(  8 -  8) =     13.24413  eV     1   --> A'             

 **************************************************************************

 **************************************************************************

                    xk=(   0.80000,  -0.20000,   0.20000  )

     Band symmetry, C_s (m)     point group:

     e(  1 -  1) =     -2.76137  eV     1   --> A'             
     e(  2 -  2) =     -0.14750  eV     1   --> A'             
     e(  3 -  3) =      2.55515  eV     1   --> A'             
     e(  4 -  4) =      3.80680  eV     1   --> A''            
     e(  5 -  5) =      7.48220  eV     1   --> A'             
     e(  6 -  6) =      9.62575  eV     1   --> A'             
     e(  7 -  7) =     13.02354  eV     1   --> A'             
     e(  8 -  8) =     13.05220  eV     1   --> A''            

 **************************************************************************

 **************************************************************************

                    xk=(   0.76667,  -0.19167,   0.19167  )

     Band symmetry, C_s (m)     point group:

     e(  1 -  1) =     -2.96967  eV     1   --> A'             
     e(  2 -  2) =      0.07952  eV     1   --> A'             
     e(  3 -  3) =      2.71661  eV     1   --> A'             
     e(  4 -  4) =      3.83876  eV     1   --> A''            
     e(  5 -  5) =      7.52320  eV     1   --> A'             
     e(  6 -  6) =      9.56060  eV     1   --> A'             
     e(  7 -  7) =     12.80452  eV     1   --> A'             
     e(  8 -  8) =     12.89643  eV     1   --> A''            

 **************************************************************************

 **************************************************************************

                    xk=(   0.73333,  -0.18333,   0.18333  )

     Band symmetry, C_s (m)     point group:

     e(  1 -  1) =     -3.17703  eV     1   --> A'             
     e(  2 -  2) =      0.31715  eV     1   --> A'             
     e(  3 -  3) =      2.88808  eV     1   --> A'             
     e(  4 -  4) =      3.88010  eV     1   --> A''            
     e(  5 -  5) =      7.57169  eV     1   --> A'             
     e(  6 -  6) =      9.51625  eV     1   --> A'             
     e(  7 -  7) =     12.58725  eV     1   --> A'             
     e(  8 -  8) =     12.74137  eV     1   --> A''            

 **************************************************************************

 **************************************************************************

                    xk=(   0.70000,  -0.17500,   0.17500  )

     Band symmetry, C_s (m)     point group:

     e(  1 -  1) =     -3.38112  eV     1   --> A'             
     e(  2 -  2) =      0.56411  eV     1   --> A'             
     e(  3 -  3) =      3.06772  eV     1   --> A'             
     e(  4 -  4) =      3.93079  eV     1   --> A''            
     e(  5 -  5) =      7.62585  eV     1   --> A'             
     e(  6 -  6) =      9.49464  eV     1   --> A'             
     e(  7 -  7) =     12.37194  eV     1   --> A'             
     e(  8 -  8) =     12.58644  eV     1   --> A''            

 **************************************************************************

 **************************************************************************

                    xk=(   0.66667,  -0.16667,   0.16667  )

     Band symmetry, C_s (m)     point group:

     e(  1 -  1) =     -3.58029  eV     1   --> A'             
     e(  2 -  2) =      0.81960  eV     1   --> A'             
     e(  3 -  3) =      3.25386  eV     1   --> A'             
     e(  4 -  4) =      3.99078  eV     1   --> A''            
     e(  5 -  5) =      7.68363  eV     1   --> A'             
     e(  6 -  6) =      9.49772  eV     1   --> A'             
     e(  7 -  7) =     12.15884  eV     1   --> A'             
     e(  8 -  8) =     12.43057  eV     1   --> A''            

 **************************************************************************

 **************************************************************************

                    xk=(   0.63333,  -0.15833,   0.15833  )

     Band symmetry, C_s (m)     point group:

     e(  1 -  1) =     -3.77334  eV     1   --> A'             
     e(  2 -  2) =      1.08304  eV     1   --> A'             
     e(  3 -  3) =      3.44496  eV     1   --> A'             
     e(  4 -  4) =      4.05999  eV     1   --> A''            
     e(  5 -  5) =      7.74302  eV     1   --> A'             
     e(  6 -  6) =      9.52717  eV     1   --> A'             
     e(  7 -  7) =     11.94832  eV     1   --> A'             
     e(  8 -  8) =     12.27231  eV     1   --> A''            

 **************************************************************************

 **************************************************************************

                    xk=(   0.60000,  -0.15000,   0.15000  )

     Band symmetry, C_s (m)     point group:

     e(  1 -  1) =     -3.95935  eV     1   --> A'             
     e(  2 -  2) =      1.35401  eV     1   --> A'             
     e(  3 -  3) =      3.63958  eV     1   --> A'             
     e(  4 -  4) =      4.13831  eV     1   --> A''            
     e(  5 -  5) =      7.80231  eV     1   --> A'             
     e(  6 -  6) =      9.58397  eV     1   --> A'             
     e(  7 -  7) =     11.74098  eV     1   --> A'             
     e(  8 -  8) =     12.10993  eV     1   --> A''            

 **************************************************************************

 **************************************************************************

                    xk=(   0.56667,  -0.14167,   0.14167  )

     Band symmetry, C_s (m)     point group:

     e(  1 -  1) =     -4.13759  eV     1   --> A'             
     e(  2 -  2) =      1.63215  eV     1   --> A'             
     e(  3 -  3) =      3.83637  eV     1   --> A'             
     e(  4 -  4) =      4.22561  eV     1   --> A''            
     e(  5 -  5) =      7.86037  eV     1   --> A'             
     e(  6 -  6) =      9.66788  eV     1   --> A'             
     e(  7 -  7) =     11.53778  eV     1   --> A'             
     e(  8 -  8) =     11.94161  eV     1   --> A''            

 **************************************************************************

 **************************************************************************

                    xk=(   0.53333,  -0.13333,   0.13333  )

     Band symmetry, C_s (m)     point group:

     e(  1 -  1) =     -4.30751  eV     1   --> A'             
     e(  2 -  2) =      1.91710  eV     1   --> A'             
     e(  3 -  3) =      4.03404  eV     1   --> A'             
     e(  4 -  4) =      4.32167  eV     1   --> A''            
     e(  5 -  5) =      7.91686  eV     1   --> A'             
     e(  6 -  6) =      9.77677  eV     1   --> A'             
     e(  7 -  7) =     11.34042  eV     1   --> A'             
     e(  8 -  8) =     11.76555  eV     1   --> A''            

 **************************************************************************

 **************************************************************************

                    xk=(   0.50000,  -0.12500,   0.12500  )

     Band symmetry, C_s (m)     point group:

     e(  1 -  1) =     -4.46863  eV     1   --> A'             
     e(  2 -  2) =      2.20852  eV     1   --> A'             
     e(  3 -  3) =      4.23135  eV     1   --> A'             
     e(  4 -  4) =      4.42627  eV     1   --> A''            
     e(  5 -  5) =      7.97217  eV     1   --> A'             
     e(  6 -  6) =      9.90556  eV     1   --> A'             
     e(  7 -  7) =     11.15229  eV     1   --> A'             
     e(  8 -  8) =     11.58025  eV     1   --> A''            

 **************************************************************************

 **************************************************************************

                    xk=(   0.46667,  -0.11667,   0.11667  )

     Band symmetry, C_s (m)     point group:

     e(  1 -  1) =     -4.62058  eV     1   --> A'             
     e(  2 -  2) =      2.50601  eV     1   --> A'             
     e(  3 -  3) =      4.42713  eV     1   --> A'             
     e(  4 -  4) =      4.53908  eV     1   --> A''            
     e(  5 -  5) =      8.02721  eV     1   --> A'             
     e(  6 -  6) =     10.04329  eV     1   --> A'             
     e(  7 -  7) =     10.98118  eV     1   --> A'             
     e(  8 -  8) =     11.38473  eV     1   --> A''            

 **************************************************************************

 **************************************************************************

                    xk=(   0.43333,  -0.10833,   0.10833  )

     Band symmetry, C_s (m)     point group:

     e(  1 -  1) =     -4.76305  eV     1   --> A'             
     e(  2 -  2) =      2.80909  eV     1   --> A'             
     e(  3 -  3) =      4.62022  eV     1   --> A'             
     e(  4 -  4) =      4.65973  eV     1   --> A''            
     e(  5 -  5) =      8.08314  eV     1   --> A'             
     e(  6 -  6) =     10.16403  eV     1   --> A'             
     e(  7 -  7) =     10.84820  eV     1   --> A'             
     e(  8 -  8) =     11.17873  eV     1   --> A''            

 **************************************************************************

 **************************************************************************

                    xk=(   0.40000,  -0.10000,   0.10000  )

     Band symmetry, C_s (m)     point group:

     e(  1 -  1) =     -4.89577  eV     1   --> A'             
     e(  2 -  2) =      3.11717  eV     1   --> A'             
     e(  3 -  3) =      4.78770  eV     1   --> A''            
     e(  4 -  4) =      4.80947  eV     1   --> A'             
     e(  5 -  5) =      8.14105  eV     1   --> A'             
     e(  6 -  6) =     10.21112  eV     1   --> A'             
     e(  7 -  7) =     10.80263  eV     1   --> A'             
     e(  8 -  8) =     10.96287  eV     1   --> A''            

 **************************************************************************

 **************************************************************************

                    xk=(   0.36667,  -0.09167,   0.09167  )

     Band symmetry, C_s (m)     point group:

     e(  1 -  1) =     -5.01852  eV     1   --> A'             
     e(  2 -  2) =      3.42952  eV     1   --> A'             
     e(  3 -  3) =      4.92237  eV     1   --> A''            
     e(  4 -  4) =      4.99370  eV     1   --> A'             
     e(  5 -  5) =      8.20178  eV     1   --> A'             
     e(  6 -  6) =     10.14635  eV     1   --> A'             
     e(  7 -  7) =     10.73862  eV     1   --> A''            
     e(  8 -  8) =     10.87067  eV     1   --> A'             

 **************************************************************************

 **************************************************************************

                    xk=(   0.33333,  -0.08333,   0.08333  )

     Band symmetry, C_s (m)     point group:

     e(  1 -  1) =     -5.13111  eV     1   --> A'             
     e(  2 -  2) =      3.74516  eV     1   --> A'             
     e(  3 -  3) =      5.06290  eV     1   --> A''            
     e(  4 -  4) =      5.17169  eV     1   --> A'             
     e(  5 -  5) =      8.26577  eV     1   --> A'             
     e(  6 -  6) =     10.01665  eV     1   --> A'             
     e(  7 -  7) =     10.50822  eV     1   --> A''            
     e(  8 -  8) =     10.98451  eV     1   --> A'             

 **************************************************************************

 **************************************************************************

                    xk=(   0.30000,  -0.07500,   0.07500  )

     Band symmetry, C_s (m)     point group:

     e(  1 -  1) =     -5.23339  eV     1   --> A'             
     e(  2 -  2) =      4.06281  eV     1   --> A'             
     e(  3 -  3) =      5.20820  eV     1   --> A''            
     e(  4 -  4) =      5.34211  eV     1   --> A'             
     e(  5 -  5) =      8.33296  eV     1   --> A'             
     e(  6 -  6) =      9.86549  eV     1   --> A'             
     e(  7 -  7) =     10.27457  eV     1   --> A''            
     e(  8 -  8) =     11.06545  eV     1   --> A'             

 **************************************************************************

 **************************************************************************

                    xk=(   0.26667,  -0.06667,   0.06667  )

     Band symmetry, C_s (m)     point group:

     e(  1 -  1) =     -5.32522  eV     1   --> A'             
     e(  2 -  2) =      4.38071  eV     1   --> A'             
     e(  3 -  3) =      5.35683  eV     1   --> A''            
     e(  4 -  4) =      5.50353  eV     1   --> A'             
     e(  5 -  5) =      8.40274  eV     1   --> A'             
     e(  6 -  6) =      9.70978  eV     1   --> A'             
     e(  7 -  7) =     10.04102  eV     1   --> A''            
     e(  8 -  8) =     11.05282  eV     1   --> A'             

 **************************************************************************

 **************************************************************************

                    xk=(   0.23333,  -0.05833,   0.05833  )

     Band symmetry, C_s (m)     point group:

     e(  1 -  1) =     -5.40649  eV     1   --> A'             
     e(  2 -  2) =      4.69643  eV     1   --> A'             
     e(  3 -  3) =      5.50685  eV     1   --> A''            
     e(  4 -  4) =      5.65430  eV     1   --> A'             
     e(  5 -  5) =      8.47389  eV     1   --> A'             
     e(  6 -  6) =      9.55611  eV     1   --> A'             
     e(  7 -  7) =      9.81145  eV     1   --> A''            
     e(  8 -  8) =     10.92500  eV     1   --> A'             

 **************************************************************************

 **************************************************************************

                    xk=(   0.20000,  -0.05000,   0.05000  )

     Band symmetry, C_s (m)     point group:

     e(  1 -  1) =     -5.47710  eV     1   --> A'             
     e(  2 -  2) =      5.00647  eV     1   --> A'             
     e(  3 -  3) =      5.65562  eV     1   --> A''            
     e(  4 -  4) =      5.79257  eV     1   --> A'             
     e(  5 -  5) =      8.54455  eV     1   --> A'             
     e(  6 -  6) =      9.40760  eV     1   --> A'             
     e(  7 -  7) =      9.59024  eV     1   --> A''            
     e(  8 -  8) =     10.71409  eV     1   --> A'             

 **************************************************************************

 **************************************************************************

                    xk=(   0.16667,  -0.04167,   0.04167  )

     Band symmetry, C_s (m)     point group:

     e(  1 -  1) =     -5.53697  eV     1   --> A'             
     e(  2 -  2) =      5.30572  eV     1   --> A'             
     e(  3 -  3) =      5.79953  eV     1   --> A''            
     e(  4 -  4) =      5.91620  eV     1   --> A'             
     e(  5 -  5) =      8.61227  eV     1   --> A'             
     e(  6 -  6) =      9.26596  eV     1   --> A'             
     e(  7 -  7) =      9.38253  eV     1   --> A''            
     e(  8 -  8) =     10.46774  eV     1   --> A'             

 **************************************************************************

 **************************************************************************

                    xk=(   0.13333,  -0.03333,   0.03333  )

     Band symmetry, C_s (m)     point group:

     e(  1 -  1) =     -5.58605  eV     1   --> A'             
     e(  2 -  2) =      5.58654  eV     1   --> A'             
     e(  3 -  3) =      5.93368  eV     1   --> A''            
     e(  4 -  4) =      6.02278  eV     1   --> A'             
     e(  5 -  5) =      8.67411  eV     1   --> A'             
     e(  6 -  6) =      9.13254  eV     1   --> A'             
     e(  7 -  7) =      9.19452  eV     1   --> A''            
     e(  8 -  8) =     10.22270  eV     1   --> A'             

 **************************************************************************

 **************************************************************************

                    xk=(   0.10000,  -0.02500,   0.02500  )

     Band symmetry, C_s (m)     point group:

     e(  1 -  1) =     -5.62426  eV     1   --> A'             
     e(  2 -  2) =      5.83749  eV     1   --> A'             
     e(  3 -  3) =      6.05160  eV     1   --> A''            
     e(  4 -  4) =      6.10968  eV     1   --> A'             
     e(  5 -  5) =      8.72681  eV     1   --> A'             
     e(  6 -  6) =      9.00978  eV     1   --> A'             
     e(  7 -  7) =      9.03368  eV     1   --> A''            
     e(  8 -  8) =     10.00563  eV     1   --> A'             

 **************************************************************************

 **************************************************************************

                    xk=(   0.06667,  -0.01667,   0.01667  )

     Band symmetry, C_s (m)     point group:

     e(  1 -  1) =     -5.65159  eV     1   --> A'             
     e(  2 -  2) =      6.04205  eV     1   --> A'             
     e(  3 -  3) =      6.14534  eV     1   --> A''            
     e(  4 -  4) =      6.17425  eV     1   --> A'             
     e(  5 -  5) =      8.76719  eV     1   --> A'             
     e(  6 -  6) =      8.90416  eV     1   --> A'             
     e(  7 -  7) =      8.90876  eV     1   --> A''            
     e(  8 -  8) =      9.83706  eV     1   --> A'             

 **************************************************************************

 **************************************************************************

                    xk=(   0.03333,  -0.00833,   0.00833  )

     Band symmetry, C_s (m)     point group:

     e(  1 -  1) =     -5.66800  eV     1   --> A'             
     e(  2 -  2) =      6.17895  eV     1   --> A'             
     e(  3 -  3) =      6.20634  eV     1   --> A''            
     e(  4 -  4) =      6.21411  eV     1   --> A'             
     e(  5 -  5) =      8.79257  eV     1   --> A'             
     e(  6 -  6) =      8.82883  eV     1   --> A''            
     e(  7 -  7) =      8.82902  eV     1   --> A'             
     e(  8 -  8) =      9.73121  eV     1   --> A'             

 **************************************************************************

 **************************************************************************

                    xk=(   0.00000,   0.00000,   0.00000  )

     point group O_h (m-3m) 
     there are 10 classes
     the character table:

       E     8C3   3C2   6C4   6C2'  i     8S6   3s_h  6S4   6s_d 
A_1g   1.00  1.00  1.00  1.00  1.00  1.00  1.00  1.00  1.00  1.00
A_2g   1.00  1.00  1.00 -1.00 -1.00  1.00  1.00  1.00 -1.00 -1.00
E_g    2.00 -1.00  2.00  0.00  0.00  2.00 -1.00  2.00  0.00  0.00
T_1g   3.00  0.00 -1.00  1.00 -1.00  3.00  0.00 -1.00  1.00 -1.00
T_2g   3.00  0.00 -1.00 -1.00  1.00  3.00  0.00 -1.00 -1.00  1.00
A_1u   1.00  1.00  1.00  1.00  1.00 -1.00 -1.00 -1.00 -1.00 -1.00
A_2u   1.00  1.00  1.00 -1.00 -1.00 -1.00 -1.00 -1.00  1.00  1.00
E_u    2.00 -1.00  2.00  0.00  0.00 -2.00  1.00 -2.00  0.00  0.00
T_1u   3.00  0.00 -1.00  1.00 -1.00 -3.00  0.00  1.00 -1.00  1.00
T_2u   3.00  0.00 -1.00 -1.00  1.00 -3.00  0.00  1.00  1.00 -1.00

     the symmetry operations in each class and the name of the first element:

     E        1
                                                                 
     8C3     17   19   20   18   24   21   22   23
                                                                 
     3C2      2    4    3
                                                                 
     6C4      7    8   15   16   12   11
                                                                 
     6C2'     5    6   14   13   10    9
                                                                 
     i       25
                                                                 
     8S6     41   43   44   42   48   45   46   47
                                                                 
     3s_h    26   28   27
                                                                 
     6S4     31   32   39   40   36   35
                                                                 
     6s_d    29   30   38   37   34   33
                                                                 

     Band symmetry, O_h (m-3m)  point group:

     e(  1 -  1) =     -5.67347  eV     1   --> A_1g G_1   G_1+
     e(  2 -  4) =      6.22760  eV     3   --> T_2g G_25' G_5+
     e(  5 -  7) =      8.80123  eV     3   --> T_1u G_15  G_4-
     e(  8 -  8) =      9.69530  eV     1   --> A_2u G_2'  G_2-

 **************************************************************************

     BANDS        :     24.43s CPU     26.54s WALL


   This run was terminated on:   9:11:13   2Aug2021            

=------------------------------------------------------------------------------=
   JOB DONE.
=------------------------------------------------------------------------------=
