
     Program PWSCF v.6.7MaX starts on  2Aug2021 at  8:50:37 

     This program is part of the open-source Quantum ESPRESSO suite
     for quantum simulation of materials; please cite
         "P. Giannozzi et al., J. Phys.:Condens. Matter 21 395502 (2009);
         "P. Giannozzi et al., J. Phys.:Condens. Matter 29 465901 (2017);
          URL http://www.quantum-espresso.org", 
     in publications or presentations arising from this work. More details at
     http://www.quantum-espresso.org/quote

     Parallel version (MPI), running on     2 processors

     MPI processes distributed on     1 nodes
     R & G space division:  proc/nbgrp/npool/nimage =       2
     Waiting for input...
     Reading input from standard input

     Current dimensions of program PWSCF are:
     Max number of different atomic species (ntypx) = 10
     Max number of k-points (npk) =  40000
     Max angular momentum in pseudopotentials (lmaxx) =  3

     Subspace diagonalization in iterative solution of the eigenvalue problem:
     a serial algorithm will be used

     Message from routine setup:
     no reason to have ecutrho>4*ecutwfc

     Parallelization info
     --------------------
     sticks:   dense  smooth     PW     G-vecs:    dense   smooth      PW
     Min        1293     429    126                43919     8444    1369
     Max        1294     430    127                43924     8445    1372
     Sum        2587     859    253                87843    16889    2741



     bravais-lattice index     =            2
     lattice parameter (alat)  =      10.2625  a.u.
     unit-cell volume          =     270.2088 (a.u.)^3
     number of atoms/cell      =            2
     number of atomic types    =            1
     number of electrons       =         8.00
     number of Kohn-Sham states=            4
     kinetic-energy cutoff     =      60.0000  Ry
     charge density cutoff     =     720.0000  Ry
     scf convergence threshold =      1.0E-08
     mixing beta               =       0.7000
     number of iterations used =            8  plain     mixing
     Exchange-correlation=  SLA  PW   PBE  PBE
                           (   1   4   3   4   0   0   0)

     celldm(1)=  10.262500  celldm(2)=   0.000000  celldm(3)=   0.000000
     celldm(4)=   0.000000  celldm(5)=   0.000000  celldm(6)=   0.000000

     crystal axes: (cart. coord. in units of alat)
               a(1) = (  -0.500000   0.000000   0.500000 )  
               a(2) = (   0.000000   0.500000   0.500000 )  
               a(3) = (  -0.500000   0.500000   0.000000 )  

     reciprocal axes: (cart. coord. in units 2 pi/alat)
               b(1) = ( -1.000000 -1.000000  1.000000 )  
               b(2) = (  1.000000  1.000000  1.000000 )  
               b(3) = ( -1.000000  1.000000 -1.000000 )  


     PseudoPot. # 1 for Si read from file:
     ../pseudo/Si.pbe-rrkj.UPF
     MD5 check sum: cf7ab5690cd9a85b22c4813f7e365554
     Pseudo is Norm-conserving, Zval =  4.0
     Generated by new atomic code, or converted to UPF format
     Using radial grid of  883 points,  3 beta functions with: 
                l(1) =   0
                l(2) =   0
                l(3) =   1

     atomic species   valence    mass     pseudopotential
        Si             4.00    28.08550     Si( 1.00)

     48 Sym. Ops., with inversion, found (24 have fractional translation)



   Cartesian axes

     site n.     atom                  positions (alat units)
         1           Si  tau(   1) = (   0.0000000   0.0000000   0.0000000  )
         2           Si  tau(   2) = (   0.2500000   0.2500000   0.2500000  )

     number of k points=    10
                       cart. coord. in units 2pi/alat
        k(    1) = (  -0.1250000   0.1250000   0.1250000), wk =   0.0625000
        k(    2) = (  -0.3750000   0.3750000  -0.1250000), wk =   0.1875000
        k(    3) = (   0.3750000  -0.3750000   0.6250000), wk =   0.1875000
        k(    4) = (   0.1250000  -0.1250000   0.3750000), wk =   0.1875000
        k(    5) = (  -0.1250000   0.6250000   0.1250000), wk =   0.1875000
        k(    6) = (   0.6250000  -0.1250000   0.8750000), wk =   0.3750000
        k(    7) = (   0.3750000   0.1250000   0.6250000), wk =   0.3750000
        k(    8) = (  -0.1250000  -0.8750000   0.1250000), wk =   0.1875000
        k(    9) = (  -0.3750000   0.3750000   0.3750000), wk =   0.0625000
        k(   10) = (   0.3750000  -0.3750000   1.1250000), wk =   0.1875000

     Dense  grid:    87843 G-vectors     FFT dimensions: (  64,  64,  64)

     Smooth grid:    16889 G-vectors     FFT dimensions: (  36,  36,  36)

     Estimated max dynamical RAM per process >      28.50 MB

     Estimated total dynamical RAM >      57.00 MB

     Initial potential from superposition of free atoms

     starting charge    7.99889, renormalised to    8.00000
     Starting wfcs are    8 randomized atomic wfcs

     total cpu time spent up to now is        0.4 secs

     Self-consistent Calculation

     iteration #  1     ecut=    60.00 Ry     beta= 0.70
     Davidson diagonalization with overlap
     ethr =  1.00E-02,  avg # of iterations =  2.0

     Threshold (ethr) on eigenvalues was too large:
     Diagonalizing with lowered threshold

     Davidson diagonalization with overlap
     ethr =  5.88E-04,  avg # of iterations =  1.9

     total cpu time spent up to now is        0.8 secs

     total energy              =     -15.73874240 Ry
     estimated scf accuracy    <       0.05548286 Ry

     iteration #  2     ecut=    60.00 Ry     beta= 0.70
     Davidson diagonalization with overlap
     ethr =  6.94E-04,  avg # of iterations =  1.0

     total cpu time spent up to now is        1.0 secs

     total energy              =     -15.74056348 Ry
     estimated scf accuracy    <       0.00310707 Ry

     iteration #  3     ecut=    60.00 Ry     beta= 0.70
     Davidson diagonalization with overlap
     ethr =  3.88E-05,  avg # of iterations =  2.3

     total cpu time spent up to now is        1.2 secs

     total energy              =     -15.74116987 Ry
     estimated scf accuracy    <       0.00009311 Ry

     iteration #  4     ecut=    60.00 Ry     beta= 0.70
     Davidson diagonalization with overlap
     ethr =  1.16E-06,  avg # of iterations =  4.4

     total cpu time spent up to now is        1.5 secs

     total energy              =     -15.74123049 Ry
     estimated scf accuracy    <       0.00000546 Ry

     iteration #  5     ecut=    60.00 Ry     beta= 0.70
     Davidson diagonalization with overlap
     ethr =  6.82E-08,  avg # of iterations =  4.1

     total cpu time spent up to now is        1.8 secs

     total energy              =     -15.74123351 Ry
     estimated scf accuracy    <       0.00000024 Ry

     iteration #  6     ecut=    60.00 Ry     beta= 0.70
     Davidson diagonalization with overlap
     ethr =  2.97E-09,  avg # of iterations =  4.0

     total cpu time spent up to now is        2.2 secs

     total energy              =     -15.74123363 Ry
     estimated scf accuracy    <       0.00000003 Ry

     iteration #  7     ecut=    60.00 Ry     beta= 0.70
     Davidson diagonalization with overlap
     ethr =  3.82E-10,  avg # of iterations =  3.5

     total cpu time spent up to now is        2.5 secs

     End of self-consistent calculation

          k =-0.1250 0.1250 0.1250 (  2112 PWs)   bands (ev):

    -5.4693   4.6494   5.9402   5.9402

          k =-0.3750 0.3750-0.1250 (  2117 PWs)   bands (ev):

    -4.4233   1.6393   3.9309   5.4567

          k = 0.3750-0.3750 0.6250 (  2115 PWs)   bands (ev):

    -3.2526  -0.4832   3.9649   4.6707

          k = 0.1250-0.1250 0.3750 (  2106 PWs)   bands (ev):

    -4.9321   3.0373   4.9141   4.9972

          k =-0.1250 0.6250 0.1250 (  2114 PWs)   bands (ev):

    -3.8822   1.3352   3.5690   4.0263

          k = 0.6250-0.1250 0.8750 (  2132 PWs)   bands (ev):

    -2.2049  -0.6500   2.1799   3.2771

          k = 0.3750 0.1250 0.6250 (  2117 PWs)   bands (ev):

    -3.4555   0.4310   2.9233   4.3061

          k =-0.1250-0.8750 0.1250 (  2127 PWs)   bands (ev):

    -2.3834  -0.5468   2.8024   3.5525

          k =-0.3750 0.3750 0.3750 (  2114 PWs)   bands (ev):

    -3.9791   0.3166   5.1448   5.1448

          k = 0.3750-0.3750 1.1250 (  2125 PWs)   bands (ev):

    -2.7492  -0.3671   2.2512   4.3473

     highest occupied level (ev):     5.9402

!    total energy              =     -15.74123364 Ry
     estimated scf accuracy    <          1.5E-09 Ry

     The total energy is the sum of the following terms:
     one-electron contribution =       4.77322316 Ry
     hartree contribution      =       1.09502583 Ry
     xc contribution           =      -4.81264586 Ry
     ewald contribution        =     -16.79683678 Ry

     convergence has been achieved in   7 iterations

     Writing output data file ../tmp/si.save/

     init_run     :      0.25s CPU      0.35s WALL (       1 calls)
     electrons    :      1.98s CPU      2.08s WALL (       1 calls)

     Called by init_run:
     wfcinit      :      0.05s CPU      0.06s WALL (       1 calls)
     potinit      :      0.12s CPU      0.17s WALL (       1 calls)
     hinit0       :      0.03s CPU      0.05s WALL (       1 calls)

     Called by electrons:
     c_bands      :      0.81s CPU      0.83s WALL (       8 calls)
     sum_band     :      0.21s CPU      0.21s WALL (       8 calls)
     v_of_rho     :      0.87s CPU      0.99s WALL (       8 calls)
     mix_rho      :      0.08s CPU      0.08s WALL (       8 calls)

     Called by c_bands:
     init_us_2    :      0.03s CPU      0.03s WALL (     170 calls)
     cegterg      :      0.78s CPU      0.79s WALL (      80 calls)

     Called by *egterg:
     cdiaghg      :      0.01s CPU      0.02s WALL (     302 calls)
     h_psi        :      0.74s CPU      0.75s WALL (     322 calls)
     g_psi        :      0.00s CPU      0.00s WALL (     232 calls)

     Called by h_psi:
     h_psi:calbec :      0.03s CPU      0.03s WALL (     322 calls)
     vloc_psi     :      0.68s CPU      0.69s WALL (     322 calls)
     add_vuspsi   :      0.02s CPU      0.02s WALL (     322 calls)

     General routines
     calbec       :      0.03s CPU      0.03s WALL (     322 calls)
     fft          :      0.49s CPU      0.53s WALL (      94 calls)
     ffts         :      0.01s CPU      0.01s WALL (      16 calls)
     fftw         :      0.67s CPU      0.68s WALL (    2464 calls)
     interpolate  :      0.07s CPU      0.07s WALL (       8 calls)

     Parallel routines
     fft_scatt_xy :      0.16s CPU      0.16s WALL (    2574 calls)
     fft_scatt_yz :      0.28s CPU      0.30s WALL (    2574 calls)

     PWSCF        :      2.26s CPU      2.51s WALL


   This run was terminated on:   8:50:39   2Aug2021            

=------------------------------------------------------------------------------=
   JOB DONE.
=------------------------------------------------------------------------------=
